                         Program Version 5.0.3 -  RELEASE  -
|  1> ! Opt B3LYP def2-TZVPP Def2/J XYZFile SlowConv CPCM(WATER)
|  2> %scf MaxIter 2000000 end
|  3> %PAL NPROCS 40 END
|  4>
|  5> * xyz 0 1
|  6> H          0.75357        0.37328        2.04775
|  7> C          0.33994        0.28626        1.04586
|  8> C         -0.84134        0.95035        0.71872
|  9> H         -1.34919        1.55547        1.46565
| 10> C         -1.37222        0.83922       -0.56567
| 11> H         -2.29390        1.35980       -0.81416
| 12> C         -0.72073        0.06272       -1.52448
| 13> O         -1.23371       -0.05060       -2.78206
| 14> C          0.46086       -0.60133       -1.19667
| 15> H          0.97042       -1.20715       -1.94241
| 16> C          0.99084       -0.48955        0.08786
| 17> H          1.91212       -1.00793        0.34171
| 18> H         -2.05527        0.46728       -2.85410
| 19> *
| 20>
| 21>
| 22>                          ****END OF INPUT****
 Total Charge           Charge          ....    0
 Multiplicity           Mult            ....    1
 Number of Electrons    NEL             ....   50
FINAL SINGLE POINT ENERGY      -307.421427748703
FINAL SINGLE POINT ENERGY      -307.421941672275
FINAL SINGLE POINT ENERGY      -307.422036723605
FINAL SINGLE POINT ENERGY      -307.422049365741
FINAL SINGLE POINT ENERGY      -307.422051793221
                    ***********************HURRAY********************

CARTESIAN COORDINATES (ANGSTROEM)
---------------------------------
  H      0.761033    0.371255    2.049018
  C      0.343922    0.287367    1.054374
  C     -0.836319    0.949750    0.728036
  H     -1.343468    1.553652    1.469883
  C     -1.377497    0.845847   -0.549886
  H     -2.296156    1.361767   -0.803924
  C     -0.730519    0.071471   -1.512747
  O     -1.213170   -0.067466   -2.784258
  C      0.452176   -0.596239   -1.194929
  H      0.943533   -1.194231   -1.951491
  C      0.982069   -0.484297    0.085412
  H      1.900533   -1.005044    0.325282
  H     -2.024746    0.443988   -2.886768

 Multiplicity           Mult            ....    1
 Number of Electrons    NEL             ....   50
 Basis Dimension        Dim             ....  301

ORBITAL ENERGIES
----------------

  NO   OCC          E(Eh)            E(eV)
   0   2.0000     -19.154823      -521.2292
   1   2.0000     -10.235849      -278.5316
   2   2.0000     -10.175459      -276.8883
   3   2.0000     -10.174951      -276.8745
   4   2.0000     -10.171593      -276.7831
   5   2.0000     -10.169560      -276.7278
   6   2.0000     -10.166405      -276.6420
   7   2.0000      -1.060553       -28.8591
   8   2.0000      -0.852569       -23.1996
   9   2.0000      -0.749900       -20.4058
  10   2.0000      -0.738868       -20.1056
  11   2.0000      -0.624182       -16.9849
  12   2.0000      -0.602946       -16.4070
  13   2.0000      -0.544649       -14.8207
  14   2.0000      -0.498072       -13.5532
  15   2.0000      -0.467348       -12.7172
  16   2.0000      -0.437959       -11.9175
  17   2.0000      -0.422786       -11.5046
  18   2.0000      -0.415130       -11.2963
  19   2.0000      -0.392693       -10.6857
  20   2.0000      -0.361502        -9.8370
  21   2.0000      -0.343221        -9.3395
  22   2.0000      -0.340473        -9.2648
  23   2.0000      -0.259895        -7.0721
  24   2.0000      -0.230593        -6.2748
  25   0.0000      -0.015281        -0.4158
  26   0.0000       0.000711         0.0194
  27   0.0000       0.051212         1.3935
  28   0.0000       0.061964         1.6861
  29   0.0000       0.090351         2.4586

MULLIKEN ATOMIC CHARGES
-----------------------
   0 H :    0.159434
   1 C :   -0.188861
   2 C :   -0.163483
   3 H :    0.163160
   4 C :   -0.201113
   5 H :    0.149941
   6 C :    0.224576
   7 O :   -0.352775
   8 C :   -0.184735
   9 H :    0.141929
  10 C :   -0.153460
  11 H :    0.160110
  12 H :    0.245278
Sum of atomic charges:   -0.0000000

LOEWDIN ATOMIC CHARGES
----------------------
   0 H :    0.018100
   1 C :   -0.040970
   2 C :   -0.020684
   3 H :    0.023756
   4 C :   -0.029434
   5 H :    0.022968
   6 C :   -0.206060
   7 O :    0.319546
   8 C :   -0.023979
   9 H :    0.022102
  10 C :   -0.020793
  11 H :    0.023723
  12 H :   -0.088275

  Mayer bond orders larger than 0.100000
B(  0-H ,  1-C ) :   0.9657 B(  1-C ,  2-C ) :   1.4096 B(  1-C , 10-C ) :   1.4060
B(  2-C ,  3-H ) :   0.9543 B(  2-C ,  4-C ) :   1.3744 B(  4-C ,  5-H ) :   0.9703
B(  4-C ,  6-C ) :   1.3513 B(  6-C ,  7-O ) :   1.0848 B(  6-C ,  8-C ) :   1.3639
B(  7-O , 12-H ) :   0.9668 B(  8-C ,  9-H ) :   0.9723 B(  8-C , 10-C ) :   1.4366
B( 10-C , 11-H ) :   0.9650

FINAL SINGLE POINT ENERGY      -307.422052398683

DIPOLE MOMENT
-------------
                                X             Y             Z
Electronic contribution:     -0.73709      -0.20192      -1.90648
Nuclear contribution   :      0.17852       0.63436       2.05301
                        -----------------------------------------
Total Dipole Moment    :     -0.55857       0.43244       0.14653
                        -----------------------------------------
Magnitude (a.u.)       :      0.72144
Magnitude (Debye)      :      1.83376

Rotational constants in cm-1:     0.189316     0.087493     0.059838
Rotational constants in MHz :  5675.545551  2622.973812  1793.912590

                             ****ORCA TERMINATED NORMALLY****
TOTAL RUN TIME: 0 days 0 hours 2 minutes 14 seconds 479 msec
