                         Program Version 5.0.3 -  RELEASE  -
|  1> ! OPT FREQ B3LYP DEF2-SVp
|  2> %PAL NPROCS 2 END
|  3> * xyz 0 1
|  4>    C       -0.96028       -0.57833        1.66249
|  5>    C       -2.15668       -1.39937        1.57663
|  6>    C       -3.30614        1.40061        0.37986
|  7>    C       -3.32589       -0.54967        1.57670
|  8>    C       -1.01840        1.39699        0.35959
|  9>    C       -2.91524        0.84239        1.66286
| 10>    C       -0.30750       -0.77791        0.37968
| 11>    C       -1.46558        0.78209        1.58809
| 12>    C       -2.16847       -2.24207        0.39240
| 13>    C       -4.12374       -0.82125        0.39289
| 14>    C       -2.16820        1.87035       -0.39240
| 15>    C       -0.21292        0.44953       -0.39289
| 16>    C       -1.03052       -1.77232       -0.37986
| 17>    C       -3.31827       -1.76871       -0.35959
| 18>    C       -4.02917        0.40620       -0.37968
| 19>    C       -2.17999        1.02765       -1.57663
| 20>    C       -1.01077        0.17796       -1.57670
| 21>    C       -1.42143       -1.21410       -1.66286
| 22>    C       -2.87109       -1.15381       -1.58809
| 23>    C       -3.37638        0.20661       -1.66249
| 24> *
| 25>
| 26>                          ****END OF INPUT****
 Total Charge           Charge          ....    0
 Multiplicity           Mult            ....    1
 Number of Electrons    NEL             ....  120
FINAL SINGLE POINT ENERGY      -760.453363692253
FINAL SINGLE POINT ENERGY      -760.453442796090
                    ***********************HURRAY********************

CARTESIAN COORDINATES (ANGSTROEM)
---------------------------------
  C     -0.960406   -0.578356    1.662369
  C     -2.157075   -1.401320    1.579318
  C     -3.308489    1.403482    0.380584
  C     -3.327758   -0.550441    1.579516
  C     -1.016589    1.399935    0.360593
  C     -2.915534    0.842973    1.663480
  C     -0.304408   -0.779370    0.380014
  C     -1.464348    0.784278    1.590718
  C     -2.168478   -2.242744    0.392372
  C     -4.123750   -0.821299    0.393066
  C     -2.168188    1.871027   -0.392372
  C     -0.212914    0.449583   -0.393066
  C     -1.028176   -1.775198   -0.380584
  C     -3.320077   -1.771651   -0.360593
  C     -4.032259    0.407654   -0.380014
  C     -2.179592    1.029603   -1.579320
  C     -1.008908    0.178725   -1.579516
  C     -1.421133   -1.214688   -1.663478
  C     -2.872319   -1.155995   -1.590718
  C     -3.376259    0.206640   -1.662368

 Multiplicity           Mult            ....    1
 Number of Electrons    NEL             ....  120
 Basis Dimension        Dim             ....  280

ORBITAL ENERGIES
----------------

  NO   OCC          E(Eh)            E(eV)
   0   2.0000     -10.263377      -279.2807
   1   2.0000     -10.263370      -279.2805
   2   2.0000     -10.263337      -279.2796
   3   2.0000     -10.263307      -279.2788
   4   2.0000     -10.263282      -279.2781
   5   2.0000     -10.263125      -279.2738
   6   2.0000     -10.263097      -279.2731
   7   2.0000     -10.263093      -279.2730
   8   2.0000     -10.263042      -279.2716
   9   2.0000     -10.263038      -279.2715
  10   2.0000     -10.262997      -279.2703
  11   2.0000     -10.262985      -279.2700
  12   2.0000     -10.234402      -278.4922
  13   2.0000     -10.234392      -278.4920
  14   2.0000     -10.234097      -278.4839
  15   2.0000     -10.234091      -278.4838
  16   2.0000     -10.233891      -278.4783
  17   2.0000     -10.233888      -278.4782
  18   2.0000     -10.233828      -278.4766
  19   2.0000     -10.233825      -278.4765
  20   2.0000      -1.020272       -27.7630
  21   2.0000      -0.934688       -25.4341
  22   2.0000      -0.934606       -25.4319
  23   2.0000      -0.934520       -25.4296
  24   2.0000      -0.800230       -21.7754
  25   2.0000      -0.800119       -21.7723
  26   2.0000      -0.800049       -21.7704
  27   2.0000      -0.794416       -21.6171
  28   2.0000      -0.794347       -21.6153
  29   2.0000      -0.655384       -17.8339
  30   2.0000      -0.643284       -17.5046
  31   2.0000      -0.643181       -17.5018
  32   2.0000      -0.643130       -17.5005
  33   2.0000      -0.621367       -16.9082
  34   2.0000      -0.621316       -16.9069
  35   2.0000      -0.621245       -16.9049
  36   2.0000      -0.502963       -13.6863
  37   2.0000      -0.493321       -13.4239
  38   2.0000      -0.491734       -13.3808
  39   2.0000      -0.491695       -13.3797
  40   2.0000      -0.491577       -13.3765
  41   2.0000      -0.452619       -12.3164
  42   2.0000      -0.452563       -12.3149
  43   2.0000      -0.449842       -12.2408
  44   2.0000      -0.449732       -12.2378
  45   2.0000      -0.449581       -12.2337
  46   2.0000      -0.416418       -11.3313
  47   2.0000      -0.416375       -11.3302
  48   2.0000      -0.416304       -11.3282
  49   2.0000      -0.379094       -10.3157
  50   2.0000      -0.379001       -10.3132
  51   2.0000      -0.376367       -10.2415
  52   2.0000      -0.376326       -10.2403
  53   2.0000      -0.376266       -10.2387
  54   2.0000      -0.280828        -7.6417
  55   2.0000      -0.280810        -7.6412
  56   2.0000      -0.280768        -7.6401
  57   2.0000      -0.270817        -7.3693
  58   2.0000      -0.270806        -7.3690
  59   2.0000      -0.187780        -5.1097
  60   0.0000      -0.128165        -3.4876
  61   0.0000      -0.128070        -3.4850
  62   0.0000      -0.127995        -3.4829
  63   0.0000      -0.068314        -1.8589
  64   0.0000      -0.068197        -1.8557

MULLIKEN ATOMIC CHARGES
-----------------------
   0 C :    0.165151
   1 C :   -0.110095
   2 C :   -0.111919
   3 C :   -0.110850
   4 C :   -0.110472
   5 C :    0.166481
   6 C :   -0.109048
   7 C :   -0.110773
   8 C :    0.166541
   9 C :    0.164966
  10 C :    0.166551
  11 C :    0.164970
  12 C :   -0.111912
  13 C :   -0.110466
  14 C :   -0.109031
  15 C :   -0.110095
  16 C :   -0.110856
  17 C :    0.166486
  18 C :   -0.110766
  19 C :    0.165137
Sum of atomic charges:   -0.0000000

LOEWDIN ATOMIC CHARGES
----------------------
   0 C :   -0.069219
   1 C :    0.046732
   2 C :    0.046953
   3 C :    0.046914
   4 C :    0.046772
   5 C :   -0.070599
   6 C :    0.046589
   7 C :    0.046666
   8 C :   -0.070709
   9 C :   -0.070100
  10 C :   -0.070709
  11 C :   -0.070101
  12 C :    0.046953
  13 C :    0.046773
  14 C :    0.046589
  15 C :    0.046731
  16 C :    0.046914
  17 C :   -0.070597
  18 C :    0.046667
  19 C :   -0.069219

  Mayer bond orders larger than 0.100000
B(  0-C ,  1-C ) :   1.2311 B(  0-C ,  6-C ) :   1.2317 B(  0-C ,  7-C ) :   1.2304
B(  1-C ,  3-C ) :   1.3097 B(  1-C ,  8-C ) :   1.2299 B(  2-C ,  5-C ) :   1.2303
B(  2-C , 10-C ) :   1.2288 B(  2-C , 14-C ) :   1.3101 B(  3-C ,  5-C ) :   1.2289
B(  3-C ,  9-C ) :   1.2320 B(  4-C ,  7-C ) :   1.3107 B(  4-C , 10-C ) :   1.2312
B(  4-C , 11-C ) :   1.2290 B(  5-C ,  7-C ) :   1.2298 B(  6-C , 11-C ) :   1.2308
B(  6-C , 12-C ) :   1.3101 B(  8-C , 12-C ) :   1.2288 B(  8-C , 13-C ) :   1.2312
B(  9-C , 13-C ) :   1.2290 B(  9-C , 14-C ) :   1.2308 B( 10-C , 15-C ) :   1.2299
B( 11-C , 16-C ) :   1.2320 B( 12-C , 17-C ) :   1.2303 B( 13-C , 18-C ) :   1.3107
B( 14-C , 19-C ) :   1.2317 B( 15-C , 16-C ) :   1.3097 B( 15-C , 19-C ) :   1.2311
B( 16-C , 17-C ) :   1.2289 B( 17-C , 18-C ) :   1.2298 B( 18-C , 19-C ) :   1.2304

FINAL SINGLE POINT ENERGY      -760.453450097348

DIPOLE MOMENT
-------------
                                X             Y             Z
Electronic contribution:     -0.00001      -0.00002      -0.00000
Nuclear contribution   :      0.00000       0.00000      -0.00000
                        -----------------------------------------
Total Dipole Moment    :     -0.00001      -0.00002      -0.00000
                        -----------------------------------------
Magnitude (a.u.)       :      0.00002
Magnitude (Debye)      :      0.00005

VIBRATIONAL FREQUENCIES
-----------------------

Scaling factor for frequencies =  1.000000000  (already applied!)

   0:         0.00 cm**-1
   1:         0.00 cm**-1
   2:         0.00 cm**-1
   3:         0.00 cm**-1
   4:         0.00 cm**-1
   5:         0.00 cm**-1
   6:      -328.03 cm**-1 ***imaginary mode***
   7:      -324.57 cm**-1 ***imaginary mode***
   8:      -321.56 cm**-1 ***imaginary mode***
   9:       461.67 cm**-1
  10:       547.03 cm**-1
  11:       547.32 cm**-1
  12:       547.55 cm**-1
  13:       555.58 cm**-1
  14:       555.99 cm**-1
  15:       642.75 cm**-1
  16:       642.87 cm**-1
  17:       643.02 cm**-1
  18:       649.28 cm**-1
  19:       649.45 cm**-1
  20:       713.28 cm**-1
  21:       714.09 cm**-1
  22:       715.41 cm**-1
  23:       716.67 cm**-1
  24:       717.07 cm**-1
  25:       717.14 cm**-1
  26:       768.01 cm**-1
  27:       768.39 cm**-1
  28:       768.57 cm**-1
  29:       815.01 cm**-1
  30:       858.01 cm**-1
  31:       929.74 cm**-1
  32:       930.05 cm**-1
  33:       930.43 cm**-1
  34:       997.45 cm**-1
  35:       998.66 cm**-1
  36:      1000.29 cm**-1
  37:      1119.39 cm**-1
  38:      1119.53 cm**-1
  39:      1187.89 cm**-1
  40:      1189.12 cm**-1
  41:      1189.71 cm**-1
  42:      1198.48 cm**-1
  43:      1199.43 cm**-1
  44:      1199.68 cm**-1
  45:      1219.01 cm**-1
  46:      1219.16 cm**-1
  47:      1219.90 cm**-1
  48:      1275.90 cm**-1
  49:      1276.35 cm**-1
  50:      1276.79 cm**-1
  51:      1281.08 cm**-1
  52:      1298.52 cm**-1
  53:      1318.63 cm**-1
  54:      1319.48 cm**-1
  55:      1322.09 cm**-1
  56:      1323.06 cm**-1
  57:      1324.46 cm**-1
  58:      1419.92 cm**-1
  59:      1420.85 cm**-1

IR SPECTRUM
-----------

 Mode   freq       eps      Int      T**2         TX        TY        TZ
       cm**-1   L/(mol*cm) km/mol    a.u.
----------------------------------------------------------------------------
  9:    461.67   0.000000    0.00  0.000000  (-0.000087  0.000206 -0.000468)
 10:    547.03   0.002263   11.44  0.001291  ( 0.015498 -0.005952  0.031864)
 11:    547.32   0.002244   11.34  0.001279  (-0.024515 -0.025062  0.007092)
 12:    547.55   0.002259   11.42  0.001287  ( 0.020991 -0.024895 -0.015068)
 13:    555.58   0.000000    0.00  0.000000  (-0.000001 -0.000001  0.000000)
 14:    555.99   0.000000    0.00  0.000000  ( 0.000001  0.000001 -0.000001)
 15:    642.75   0.000002    0.01  0.000001  (-0.000513  0.000373  0.000816)
 16:    642.87   0.000002    0.01  0.000001  ( 0.000609  0.000824  0.000043)
 17:    643.02   0.000003    0.02  0.000002  (-0.000864  0.000358 -0.000875)
 18:    649.28   0.000001    0.00  0.000000  (-0.000256 -0.000202  0.000398)
 19:    649.45   0.000000    0.00  0.000000  (-0.000167  0.000304  0.000103)
 20:    713.28   0.000000    0.00  0.000000  ( 0.000000 -0.000000  0.000001)
 21:    714.09   0.000000    0.00  0.000000  ( 0.000001  0.000000  0.000000)
 22:    715.41   0.000000    0.00  0.000000  ( 0.000001 -0.000001  0.000003)
 23:    716.67   0.000119    0.60  0.000052  (-0.003944  0.000996 -0.005923)
 24:    717.07   0.000115    0.58  0.000050  ( 0.005329  0.003571 -0.002966)
 25:    717.14   0.000115    0.58  0.000050  (-0.002567  0.005971  0.002804)
 26:    768.01   0.000000    0.00  0.000000  (-0.000000 -0.000000 -0.000000)
 27:    768.39   0.000000    0.00  0.000000  (-0.000000 -0.000000 -0.000000)
 28:    768.57   0.000000    0.00  0.000000  ( 0.000000  0.000000  0.000000)
 29:    815.01   0.000000    0.00  0.000000  ( 0.000000 -0.000000 -0.000000)
 30:    858.01   0.000000    0.00  0.000000  (-0.000000 -0.000000 -0.000000)
 31:    929.74   0.003546   17.92  0.001190  (-0.001134 -0.013412  0.031765)
 32:    930.05   0.003551   17.95  0.001191  (-0.034465 -0.001012 -0.001624)
 33:    930.43   0.003581   18.10  0.001201  (-0.001486  0.031882  0.013508)
 34:    997.45   0.000000    0.00  0.000000  ( 0.000000 -0.000001  0.000000)
 35:    998.66   0.000000    0.00  0.000000  ( 0.000000 -0.000000  0.000000)
 36:   1000.29   0.000000    0.00  0.000000  ( 0.000000  0.000000 -0.000000)
 37:   1119.39   0.000000    0.00  0.000000  ( 0.000000  0.000001 -0.000000)
 38:   1119.53   0.000000    0.00  0.000000  ( 0.000000  0.000000  0.000000)
 39:   1187.89   0.003313   16.74  0.000870  ( 0.021449 -0.003345  0.019976)
 40:   1189.12   0.003211   16.23  0.000843  (-0.019655 -0.000494  0.021358)
 41:   1189.71   0.003295   16.65  0.000864  (-0.003154 -0.029059 -0.003135)
 42:   1198.48   0.000000    0.00  0.000000  ( 0.000000 -0.000000  0.000001)
 43:   1199.43   0.000000    0.00  0.000000  ( 0.000003  0.000001 -0.000003)
 44:   1199.68   0.000000    0.00  0.000000  (-0.000000 -0.000000  0.000001)
 45:   1219.01   0.005106   25.80  0.001307  (-0.008151 -0.032242  0.014178)
 46:   1219.16   0.005183   26.19  0.001327  ( 0.021834 -0.017077 -0.023627)
 47:   1219.90   0.005178   26.17  0.001325  (-0.027920 -0.003919 -0.023014)
 48:   1275.90   0.015618   78.92  0.003820  (-0.013686 -0.022489  0.055917)
 49:   1276.35   0.015397   77.81  0.003765  (-0.057498  0.020751 -0.005286)
 50:   1276.79   0.015303   77.33  0.003740  (-0.016033 -0.053550 -0.024809)
 51:   1281.08   0.000065    0.33  0.000016  (-0.001830  0.000113  0.003542)
 52:   1298.52   0.000000    0.00  0.000000  (-0.000000  0.000003  0.000000)
 53:   1318.63   0.000009    0.05  0.000002  ( 0.001121 -0.000045 -0.000944)
 54:   1319.48   0.000001    0.00  0.000000  ( 0.000213  0.000283 -0.000007)
 55:   1322.09   0.000000    0.00  0.000000  ( 0.000000  0.000000  0.000000)
 56:   1323.06   0.000000    0.00  0.000000  ( 0.000000  0.000000 -0.000001)
 57:   1324.46   0.000000    0.00  0.000000  (-0.000000 -0.000000  0.000000)
 58:   1419.92   0.000000    0.00  0.000000  (-0.000000 -0.000000  0.000000)
 59:   1420.85   0.000000    0.00  0.000000  ( 0.000000  0.000000 -0.000000)

--------------------------
THERMOCHEMISTRY AT 298.15K
--------------------------

Temperature         ... 298.15 K
Pressure            ... 1.00 atm
Total Mass          ... 240.22 AMU

Throughout the following assumptions are being made:
  (1) The electronic state is orbitally nondegenerate
  (2) There are no thermally accessible electronically excited states
  (3) Hindered rotations indicated by low frequency modes are not
      treated as such but are treated as vibrations and this may
      cause some error
  (4) All equations used are the standard statistical mechanics
      equations for an ideal gas
  (5) All vibrations are strictly harmonic

freq.     461.67  E(vib)   ...       0.16
freq.     547.03  E(vib)   ...       0.12
freq.     547.32  E(vib)   ...       0.12
freq.     547.55  E(vib)   ...       0.12
freq.     555.58  E(vib)   ...       0.12
freq.     555.99  E(vib)   ...       0.12
freq.     642.75  E(vib)   ...       0.09
freq.     642.87  E(vib)   ...       0.09
freq.     643.02  E(vib)   ...       0.09
freq.     649.28  E(vib)   ...       0.08
freq.     649.45  E(vib)   ...       0.08
freq.     713.28  E(vib)   ...       0.07
freq.     714.09  E(vib)   ...       0.07
freq.     715.41  E(vib)   ...       0.07
freq.     716.67  E(vib)   ...       0.07
freq.     717.07  E(vib)   ...       0.07
freq.     717.14  E(vib)   ...       0.07
freq.     768.01  E(vib)   ...       0.06
freq.     768.39  E(vib)   ...       0.06
freq.     768.57  E(vib)   ...       0.06
freq.     815.01  E(vib)   ...       0.05
freq.     858.01  E(vib)   ...       0.04
freq.     929.74  E(vib)   ...       0.03
freq.     930.05  E(vib)   ...       0.03
freq.     930.43  E(vib)   ...       0.03
freq.     997.45  E(vib)   ...       0.02
freq.     998.66  E(vib)   ...       0.02
freq.    1000.29  E(vib)   ...       0.02
freq.    1119.39  E(vib)   ...       0.01
freq.    1119.53  E(vib)   ...       0.01
freq.    1187.89  E(vib)   ...       0.01
freq.    1189.12  E(vib)   ...       0.01
freq.    1189.71  E(vib)   ...       0.01
freq.    1198.48  E(vib)   ...       0.01
freq.    1199.43  E(vib)   ...       0.01
freq.    1199.68  E(vib)   ...       0.01
freq.    1219.01  E(vib)   ...       0.01
freq.    1219.16  E(vib)   ...       0.01
freq.    1219.90  E(vib)   ...       0.01
freq.    1275.90  E(vib)   ...       0.01
freq.    1276.35  E(vib)   ...       0.01
freq.    1276.79  E(vib)   ...       0.01
freq.    1281.08  E(vib)   ...       0.01
freq.    1298.52  E(vib)   ...       0.01
freq.    1318.63  E(vib)   ...       0.01
freq.    1319.48  E(vib)   ...       0.01
freq.    1322.09  E(vib)   ...       0.01
freq.    1323.06  E(vib)   ...       0.01
freq.    1324.46  E(vib)   ...       0.01
freq.    1419.92  E(vib)   ...       0.00
freq.    1420.85  E(vib)   ...       0.00

------------
INNER ENERGY
------------

The inner energy is: U= E(el) + E(ZPE) + E(vib) + E(rot) + E(trans)
    E(el)   - is the total energy from the electronic structure calculation
              = E(kin-el) + E(nuc-el) + E(el-el) + E(nuc-nuc)
    E(ZPE)  - the the zero temperature vibrational energy from the frequency calculation
    E(vib)  - the the finite temperature correction to E(ZPE) due to population
              of excited vibrational states
    E(rot)  - is the rotational thermal energy
    E(trans)- is the translational thermal energy

Summary of contributions to the inner energy U:
Electronic energy                ...   -760.45345010 Eh
Zero point energy                ...      0.11258522 Eh      70.65 kcal/mol
Thermal vibrational correction   ...      0.00350087 Eh       2.20 kcal/mol
Thermal rotational correction    ...      0.00141627 Eh       0.89 kcal/mol
Thermal translational correction ...      0.00141627 Eh       0.89 kcal/mol
-----------------------------------------------------------------------
Total thermal energy                   -760.33453147 Eh

Summary of corrections to the electronic energy:
(perhaps to be used in another calculation)
Total thermal correction                  0.00633342 Eh       3.97 kcal/mol
Non-thermal (ZPE) correction              0.11258522 Eh      70.65 kcal/mol
-----------------------------------------------------------------------
Total correction                          0.11891863 Eh      74.62 kcal/mol

--------
ENTHALPY
--------

The enthalpy is H = U + kB*T
                kB is Boltzmann's constant
Total free energy                 ...   -760.33453147 Eh
Thermal Enthalpy correction       ...      0.00094421 Eh       0.59 kcal/mol
-----------------------------------------------------------------------
Total Enthalpy                    ...   -760.33358726 Eh

Note: Rotational entropy computed according to Herzberg
Infrared and Raman Spectra, Chapter V,1, Van Nostrand Reinhold, 1945
Point Group:  Ci, Symmetry Number:   1
Rotational constants in cm-1:     0.025463     0.025460     0.025445

Vibrational entropy computed according to the QRRHO of S. Grimme
Chem.Eur.J. 2012 18 9955

-------
ENTROPY
-------

The entropy contributions are T*S = T*(S(el)+S(vib)+S(rot)+S(trans))
     S(el)   - electronic entropy
     S(vib)  - vibrational entropy
     S(rot)  - rotational entropy
     S(trans)- translational entropy
The entropies will be listed as multiplied by the temperature to get
units of energy

Electronic entropy                ...      0.00000000 Eh      0.00 kcal/mol
Vibrational entropy               ...      0.00456589 Eh      2.87 kcal/mol
Rotational entropy                ...      0.01470966 Eh      9.23 kcal/mol
Translational entropy             ...      0.02011244 Eh     12.62 kcal/mol
-----------------------------------------------------------------------
Final entropy term                ...      0.03938800 Eh     24.72 kcal/mol

In case the symmetry of your molecule has not been determined correctly
or in case you have a reason to use a different symmetry number we print
out the resulting rotational entropy values for sn=1,12 :
 --------------------------------------------------------
|  sn= 1 | S(rot)=       0.01470966 Eh      9.23 kcal/mol|
|  sn= 2 | S(rot)=       0.01405520 Eh      8.82 kcal/mol|
|  sn= 3 | S(rot)=       0.01367237 Eh      8.58 kcal/mol|
|  sn= 4 | S(rot)=       0.01340075 Eh      8.41 kcal/mol|
|  sn= 5 | S(rot)=       0.01319006 Eh      8.28 kcal/mol|
|  sn= 6 | S(rot)=       0.01301792 Eh      8.17 kcal/mol|
|  sn= 7 | S(rot)=       0.01287237 Eh      8.08 kcal/mol|
|  sn= 8 | S(rot)=       0.01274629 Eh      8.00 kcal/mol|
|  sn= 9 | S(rot)=       0.01263508 Eh      7.93 kcal/mol|
|  sn=10 | S(rot)=       0.01253560 Eh      7.87 kcal/mol|
|  sn=11 | S(rot)=       0.01244561 Eh      7.81 kcal/mol|
|  sn=12 | S(rot)=       0.01236346 Eh      7.76 kcal/mol|
 --------------------------------------------------------

-------------------
GIBBS FREE ENERGY

                             ****ORCA TERMINATED NORMALLY****
TOTAL RUN TIME: 0 days 0 hours 53 minutes 46 seconds 477 msec
