                         Program Version 5.0.3 -  RELEASE  -
|  1> ! RHF OPT NUMFREQ wB97X D4 def2-TZVPP Def2/J  XYZFile  CPCM(THF)
|  2>
|  3> %PAL NPROCS 40 END
|  4> * xyz 0 1
|  5>    K       -0.49758        2.03662       -2.61226
|  6>    C       -0.15640        0.55792        0.23106
|  7>    C        0.87751        1.55367       -0.11792
|  8>    C       -1.47197        1.17853       -0.05199
|  9>    H       -0.07653        0.29858        1.46749
| 10>    H        0.02415       -0.59812       -0.20243
| 11>    C       -1.66964        2.50109       -0.02394
| 12>    H       -2.33818        0.52172        0.07450
| 13>    C        0.65701        2.87178       -0.09246
| 14>    H        1.91082        1.20317       -0.03785
| 15>    C       -0.60997        3.36208        0.05844
| 16>    H       -0.77547        4.43405        0.21165
| 17>    H        1.49687        3.55515       -0.02552
| 18>    H       -2.67577        2.88771        0.09046
| 19> *
| 20>
| 21>                          ****END OF INPUT****
 Total Charge           Charge          ....    0
 Multiplicity           Mult            ....    1
 Number of Electrons    NEL             ....   62
Dispersion correction           -0.001704073
FINAL SINGLE POINT ENERGY      -832.744688983991
Dispersion correction            ... Starting D4
Dispersion correction           -0.001702374
FINAL SINGLE POINT ENERGY      -832.768130079046
Dispersion correction            ... Starting D4
Dispersion correction           -0.001701340
FINAL SINGLE POINT ENERGY      -832.775750644313
Dispersion correction            ... Starting D4
FINAL SINGLE POINT ENERGY      -832.778158746735
FINAL SINGLE POINT ENERGY      -832.779735865764
FINAL SINGLE POINT ENERGY      -832.780379367969
FINAL SINGLE POINT ENERGY      -832.780917973700
FINAL SINGLE POINT ENERGY      -832.781225982888
FINAL SINGLE POINT ENERGY      -832.781396093805
FINAL SINGLE POINT ENERGY      -832.781520649221
FINAL SINGLE POINT ENERGY      -832.782300601216
FINAL SINGLE POINT ENERGY      -832.782349199844
FINAL SINGLE POINT ENERGY      -832.782367485598
FINAL SINGLE POINT ENERGY      -832.782378135068
FINAL SINGLE POINT ENERGY      -832.782383074297
FINAL SINGLE POINT ENERGY      -832.782386494289
FINAL SINGLE POINT ENERGY      -832.782388967201
Dispersion correction            ... Starting D4
Dispersion correction           -0.001713829
FINAL SINGLE POINT ENERGY      -832.782390366160
Dispersion correction            ... Starting D4
Dispersion correction           -0.001713632
FINAL SINGLE POINT ENERGY      -832.782391063479
Dispersion correction            ... Starting D4
                    ***********************HURRAY********************

CARTESIAN COORDINATES (ANGSTROEM)
---------------------------------
  K     -0.524848    2.335675   -2.596173
  C     -0.148058    0.532587    0.413489
  C      0.927315    1.486200   -0.065532
  C     -1.493323    1.098103    0.005113
  H     -0.095047    0.404423    1.514046
  H     -0.000023   -0.468082   -0.001068
  C     -1.689222    2.449630    0.059504
  H     -2.331165    0.425523   -0.146186
  C      0.694047    2.831528   -0.012067
  H      1.923500    1.108061   -0.270111
  C     -0.609983    3.367477    0.162624
  H     -0.780921    4.435889    0.182197
  H      1.519228    3.516137   -0.202237
  H     -2.696650    2.840800   -0.074369

 Multiplicity           Mult            ....    1
 Number of Electrons    NEL             ....   62
 Basis Dimension        Dim             ....  317

ORBITAL ENERGIES
----------------

  NO   OCC          E(Eh)            E(eV)
   0   2.0000    -129.738824     -3530.3729
   1   2.0000     -13.280018      -361.3677
   2   2.0000     -10.621548      -289.0270
   3   2.0000     -10.621438      -289.0240
   4   2.0000     -10.621422      -289.0236
   5   2.0000     -10.232624      -278.4439
   6   2.0000     -10.230985      -278.3993
   7   2.0000     -10.230927      -278.3977
   8   2.0000     -10.210243      -277.8348
   9   2.0000     -10.210231      -277.8345
  10   2.0000     -10.197181      -277.4794
  11   2.0000      -1.497101       -40.7382
  12   2.0000      -0.945249       -25.7215
  13   2.0000      -0.856293       -23.3009
  14   2.0000      -0.854625       -23.2555
  15   2.0000      -0.849576       -23.1181
  16   2.0000      -0.836141       -22.7526
  17   2.0000      -0.830676       -22.6038
  18   2.0000      -0.705200       -19.1895
  19   2.0000      -0.671094       -18.2614
  20   2.0000      -0.599558       -16.3148
  21   2.0000      -0.558895       -15.2083
  22   2.0000      -0.505610       -13.7584
  23   2.0000      -0.504172       -13.7192
  24   2.0000      -0.492046       -13.3893
  25   2.0000      -0.473693       -12.8898
  26   2.0000      -0.414537       -11.2801
  27   2.0000      -0.403705       -10.9854
  28   2.0000      -0.395797       -10.7702
  29   2.0000      -0.326731        -8.8908
  30   2.0000      -0.214479        -5.8363
  31   0.0000       0.026229         0.7137
  32   0.0000       0.089657         2.4397
  33   0.0000       0.092358         2.5132
  34   0.0000       0.096994         2.6393
  35   0.0000       0.097267         2.6468

MULLIKEN ATOMIC CHARGES
-----------------------
   0 K :    0.838843
   1 C :   -0.018633
   2 C :   -0.367952
   3 C :   -0.368349
   4 H :    0.041157
   5 H :    0.077170
   6 C :   -0.192451
   7 H :    0.106718
   8 C :   -0.192406
   9 H :    0.107163
  10 C :   -0.432579
  11 H :    0.118823
  12 H :    0.141294
  13 H :    0.141203
Sum of atomic charges:   -0.0000000

LOEWDIN ATOMIC CHARGES
----------------------
   0 K :    0.606589
   1 C :   -0.074368
   2 C :   -0.098081
   3 C :   -0.098518
   4 H :    0.000728
   5 H :    0.014444
   6 C :   -0.101140
   7 H :   -0.007520
   8 C :   -0.101199
   9 H :   -0.007267
  10 C :   -0.176525
  11 H :   -0.009908
  12 H :    0.026412
  13 H :    0.026353

  Mayer bond orders larger than 0.100000
B(  0-K ,  2-C ) :   0.1058 B(  0-K ,  3-C ) :   0.1060 B(  1-C ,  2-C ) :   0.9451
B(  1-C ,  3-C ) :   0.9449 B(  1-C ,  4-H ) :   1.0098 B(  1-C ,  5-H ) :   1.0352
B(  2-C ,  8-C ) :   1.5738 B(  2-C ,  9-H ) :   1.0296 B(  3-C ,  6-C ) :   1.5731
B(  3-C ,  7-H ) :   1.0296 B(  6-C , 10-C ) :   1.2413 B(  6-C , 13-H ) :   1.0041
B(  8-C , 10-C ) :   1.2398 B(  8-C , 12-H ) :   1.0043 B( 10-C , 11-H ) :   1.0417

Dispersion correction           -0.001713565
FINAL SINGLE POINT ENERGY      -832.782391429833

DIPOLE MOMENT
-------------
                                X             Y             Z
Electronic contribution:     -0.77845       2.68286     -12.07144
Nuclear contribution   :      0.61144      -2.36995       7.96060
                        -----------------------------------------
Total Dipole Moment    :     -0.16700       0.31290      -4.11084
                        -----------------------------------------
Magnitude (a.u.)       :      4.12612
Magnitude (Debye)      :     10.48776

VIBRATIONAL FREQUENCIES
-----------------------

Scaling factor for frequencies =  1.000000000 (already applied!)

   0:         0.00 cm**-1
   1:         0.00 cm**-1
   2:         0.00 cm**-1
   3:         0.00 cm**-1
   4:         0.00 cm**-1
   5:         0.00 cm**-1
   6:       106.35 cm**-1
   7:       150.04 cm**-1
   8:       193.26 cm**-1
   9:       199.96 cm**-1
  10:       439.64 cm**-1
  11:       491.91 cm**-1
  12:       565.55 cm**-1
  13:       600.04 cm**-1
  14:       624.97 cm**-1
  15:       699.78 cm**-1
  16:       706.57 cm**-1
  17:       882.71 cm**-1
  18:       936.42 cm**-1
  19:       958.94 cm**-1
  20:       977.32 cm**-1
  21:       993.58 cm**-1
  22:      1000.93 cm**-1
  23:      1073.63 cm**-1
  24:      1099.61 cm**-1
  25:      1138.53 cm**-1
  26:      1175.97 cm**-1
  27:      1226.89 cm**-1
  28:      1329.53 cm**-1
  29:      1353.59 cm**-1
  30:      1433.88 cm**-1
  31:      1460.04 cm**-1
  32:      1500.11 cm**-1
  33:      1557.97 cm**-1
  34:      1634.30 cm**-1
  35:      2837.71 cm**-1
  36:      3062.17 cm**-1
  37:      3140.36 cm**-1
  38:      3146.27 cm**-1
  39:      3182.12 cm**-1
  40:      3185.23 cm**-1
  41:      3213.64 cm**-1

IR SPECTRUM
-----------

 Mode   freq       eps      Int      T**2         TX        TY        TZ
       cm**-1   L/(mol*cm) km/mol    a.u.
----------------------------------------------------------------------------
  6:    106.35   0.001715    8.67  0.005032  (-0.015989  0.056792 -0.039379)
  7:    150.04   0.000449    2.27  0.000934  ( 0.028209  0.010993  0.004138)
  8:    193.26   0.003395   17.16  0.005482  (-0.005709  0.013646 -0.072551)
  9:    199.96   0.003373   17.04  0.005263  (-0.002277 -0.000021  0.072513)
 10:    439.64   0.002062   10.42  0.001464  (-0.037605 -0.006537 -0.002660)
 11:    491.91   0.021144  106.85  0.013413  (-0.003057  0.036021  0.110030)
 12:    565.55   0.033621  169.91  0.018552  (-0.004130  0.049485  0.126831)
 13:    600.04   0.000043    0.22  0.000022  (-0.004420 -0.001672  0.000222)
 14:    624.97   0.001338    6.76  0.000668  ( 0.003195 -0.011696  0.022831)
 15:    699.78   0.003700   18.70  0.001650  (-0.022017  0.002867  0.034016)
 16:    706.57   0.016320   82.47  0.007208  (-0.009592 -0.018354 -0.082333)
 17:    882.71   0.000031    0.16  0.000011  (-0.000343  0.001115  0.003126)
 18:    936.42   0.007955   40.20  0.002651  (-0.004243  0.036551  0.036013)
 19:    958.94   0.006901   34.87  0.002246  ( 0.046979  0.005693 -0.002498)
 20:    977.32   0.003357   16.97  0.001072  (-0.002159  0.032327  0.004723)
 21:    993.58   0.003733   18.86  0.001172  ( 0.033967  0.004263 -0.000697)
 22:   1000.93   0.012789   64.63  0.003987  ( 0.010568 -0.061956 -0.006080)
 23:   1073.63   0.001307    6.61  0.000380  (-0.000305  0.013898  0.013664)
 24:   1099.61   0.010787   54.51  0.003061  (-0.054471 -0.009535  0.001791)
 25:   1138.53   0.001269    6.41  0.000348  ( 0.018508  0.002282  0.000091)
 26:   1175.97   0.003673   18.56  0.000975  ( 0.004635 -0.030083 -0.006950)
 27:   1226.89   0.002838   14.34  0.000722  ( 0.026519  0.004155 -0.001163)
 28:   1329.53   0.036555  184.74  0.008580  ( 0.091337  0.015173 -0.002732)
 29:   1353.59   0.002012   10.17  0.000464  (-0.021044 -0.004391  0.001282)
 30:   1433.88   0.000224    1.13  0.000049  ( 0.000430 -0.002799  0.006376)
 31:   1460.04   0.042219  213.36  0.009024  ( 0.093722  0.015295 -0.002422)
 32:   1500.11   0.000958    4.84  0.000199  ( 0.002171 -0.013228  0.004416)
 33:   1557.97   0.029738  150.28  0.005957  ( 0.076149  0.012374 -0.002179)
 34:   1634.30   0.038404  194.08  0.007333  ( 0.013530 -0.083449 -0.013650)
 35:   2837.71   0.074906  378.55  0.008237  (-0.010595  0.052316 -0.073405)
 36:   3062.17   0.015276   77.20  0.001557  (-0.005971  0.038753  0.004401)
 37:   3140.36   0.006264   31.66  0.000623  ( 0.021927 -0.011884  0.000697)
 38:   3146.27   0.005162   26.09  0.000512  (-0.017267 -0.014531  0.001639)
 39:   3182.12   0.011144   56.32  0.001093  ( 0.032967  0.001218 -0.002129)
 40:   3185.23   0.002554   12.90  0.000250  (-0.006036 -0.014137 -0.003727)
 41:   3213.64   0.004109   20.76  0.000399  ( 0.003324 -0.019651  0.001336)

--------------------------
THERMOCHEMISTRY AT 298.15K
--------------------------

Temperature         ... 298.15 K
Pressure            ... 1.00 atm
Total Mass          ... 118.22 AMU

Throughout the following assumptions are being made:
  (1) The electronic state is orbitally nondegenerate
  (2) There are no thermally accessible electronically excited states
  (3) Hindered rotations indicated by low frequency modes are not
      treated as such but are treated as vibrations and this may
      cause some error
  (4) All equations used are the standard statistical mechanics
      equations for an ideal gas
  (5) All vibrations are strictly harmonic

freq.     106.35  E(vib)   ...       0.45
freq.     150.04  E(vib)   ...       0.40
freq.     193.26  E(vib)   ...       0.36
freq.     199.96  E(vib)   ...       0.35
freq.     439.64  E(vib)   ...       0.17
freq.     491.91  E(vib)   ...       0.14
freq.     565.55  E(vib)   ...       0.11
freq.     600.04  E(vib)   ...       0.10
freq.     624.97  E(vib)   ...       0.09
freq.     699.78  E(vib)   ...       0.07
freq.     706.57  E(vib)   ...       0.07
freq.     882.71  E(vib)   ...       0.04
freq.     936.42  E(vib)   ...       0.03
freq.     958.94  E(vib)   ...       0.03
freq.     977.32  E(vib)   ...       0.03
freq.     993.58  E(vib)   ...       0.02
freq.    1000.93  E(vib)   ...       0.02
freq.    1073.63  E(vib)   ...       0.02
freq.    1099.61  E(vib)   ...       0.02
freq.    1138.53  E(vib)   ...       0.01
freq.    1175.97  E(vib)   ...       0.01
freq.    1226.89  E(vib)   ...       0.01
freq.    1329.53  E(vib)   ...       0.01
freq.    1353.59  E(vib)   ...       0.01
freq.    1433.88  E(vib)   ...       0.00
freq.    1460.04  E(vib)   ...       0.00
freq.    1500.11  E(vib)   ...       0.00
freq.    1557.97  E(vib)   ...       0.00
freq.    1634.30  E(vib)   ...       0.00
freq.    2837.71  E(vib)   ...       0.00
freq.    3062.17  E(vib)   ...       0.00
freq.    3140.36  E(vib)   ...       0.00
freq.    3146.27  E(vib)   ...       0.00
freq.    3182.12  E(vib)   ...       0.00
freq.    3185.23  E(vib)   ...       0.00
freq.    3213.64  E(vib)   ...       0.00

------------
INNER ENERGY
------------

The inner energy is: U= E(el) + E(ZPE) + E(vib) + E(rot) + E(trans)
    E(el)   - is the total energy from the electronic structure calculation
              = E(kin-el) + E(nuc-el) + E(el-el) + E(nuc-nuc)
    E(ZPE)  - the the zero temperature vibrational energy from the frequency calculation
    E(vib)  - the the finite temperature correction to E(ZPE) due to population
              of excited vibrational states
    E(rot)  - is the rotational thermal energy
    E(trans)- is the translational thermal energy

Summary of contributions to the inner energy U:
Electronic energy                ...   -832.78239143 Eh
Zero point energy                ...      0.10998879 Eh      69.02 kcal/mol
Thermal vibrational correction   ...      0.00412333 Eh       2.59 kcal/mol
Thermal rotational correction    ...      0.00141627 Eh       0.89 kcal/mol
Thermal translational correction ...      0.00141627 Eh       0.89 kcal/mol
-----------------------------------------------------------------------
Total thermal energy                   -832.66544677 Eh

Summary of corrections to the electronic energy:
(perhaps to be used in another calculation)
Total thermal correction                  0.00695587 Eh       4.36 kcal/mol
Non-thermal (ZPE) correction              0.10998879 Eh      69.02 kcal/mol
-----------------------------------------------------------------------
Total correction                          0.11694466 Eh      73.38 kcal/mol

--------
ENTHALPY
--------

The enthalpy is H = U + kB*T
                kB is Boltzmann's constant
Total free energy                 ...   -832.66544677 Eh
Thermal Enthalpy correction       ...      0.00094421 Eh       0.59 kcal/mol
-----------------------------------------------------------------------
Total Enthalpy                    ...   -832.66450256 Eh

Note: Only C1 symmetry has been detected, increase convergence thresholds
      if your molecule has a higher symmetry. Symmetry factor of 1.0 is
      used for the rotational entropy correction.

Note: Rotational entropy computed according to Herzberg
Infrared and Raman Spectra, Chapter V,1, Van Nostrand Reinhold, 1945
Point Group:  C1, Symmetry Number:   1
Rotational constants in cm-1:     0.095684     0.057820     0.057188

Vibrational entropy computed according to the QRRHO of S. Grimme
Chem.Eur.J. 2012 18 9955

-------
ENTROPY
-------

The entropy contributions are T*S = T*(S(el)+S(vib)+S(rot)+S(trans))
     S(el)   - electronic entropy
     S(vib)  - vibrational entropy
     S(rot)  - rotational entropy
     S(trans)- translational entropy
The entropies will be listed as multiplied by the temperature to get
units of energy

Electronic entropy                ...      0.00000000 Eh      0.00 kcal/mol
Vibrational entropy               ...      0.00693501 Eh      4.35 kcal/mol
Rotational entropy                ...      0.01331517 Eh      8.36 kcal/mol
Translational entropy             ...      0.01910832 Eh     11.99 kcal/mol
-----------------------------------------------------------------------
Final entropy term                ...      0.03935849 Eh     24.70 kcal/mol

In case the symmetry of your molecule has not been determined correctly
or in case you have a reason to use a different symmetry number we print
out the resulting rotational entropy values for sn=1,12 :
 --------------------------------------------------------
|  sn= 1 | S(rot)=       0.01331517 Eh      8.36 kcal/mol|
|  sn= 2 | S(rot)=       0.01266071 Eh      7.94 kcal/mol|
|  sn= 3 | S(rot)=       0.01227788 Eh      7.70 kcal/mol|
|  sn= 4 | S(rot)=       0.01200626 Eh      7.53 kcal/mol|
|  sn= 5 | S(rot)=       0.01179557 Eh      7.40 kcal/mol|
|  sn= 6 | S(rot)=       0.01162342 Eh      7.29 kcal/mol|
|  sn= 7 | S(rot)=       0.01147788 Eh      7.20 kcal/mol|
|  sn= 8 | S(rot)=       0.01135180 Eh      7.12 kcal/mol|
|  sn= 9 | S(rot)=       0.01124059 Eh      7.05 kcal/mol|
|  sn=10 | S(rot)=       0.01114111 Eh      6.99 kcal/mol|
|  sn=11 | S(rot)=       0.01105112 Eh      6.93 kcal/mol|
|  sn=12 | S(rot)=       0.01096897 Eh      6.88 kcal/mol|
 --------------------------------------------------------

-------------------
GIBBS FREE ENERGY
-------------------

The Gibbs free energy is G = H - T*S

Total enthalpy                    ...   -832.66450256 Eh
Total entropy correction          ...     -0.03935849 Eh    -24.70 kcal/mol
-----------------------------------------------------------------------
Final Gibbs free energy         ...   -832.70386106 Eh

For completeness - the Gibbs free energy minus the electronic energy

                             ****ORCA TERMINATED NORMALLY****
TOTAL RUN TIME: 0 days 0 hours 25 minutes 47 seconds 616 msec
